390
	Energy:     369.2118209
C 2.376128982929941458e+01 7.856558767283637223e+00 -3.695900064800167889e-02
C 2.464025508346660587e+01 6.821161771070695323e+00 -4.079900064800167508e-02
C 2.388843001132571686e+01 5.667285483334298490e+00 -2.121900064800167490e-02
C 2.248884097052965458e+01 7.300928338117310901e+00 -1.413900064800167715e-02
N 2.255680457941121375e+01 5.939995222028283450e+00 -1.881900064800167555e-02
C 2.136624848373119079e+01 8.031370127094120903e+00 1.659099935199832149e-02
C 2.003535041441070064e+01 7.422648422881930053e+00 4.928099935199832526e-02
N 1.976509664107517494e+01 6.095316187231071048e+00 3.074099935199832434e-02
C 1.840886646534029580e+01 6.024008575953382127e+00 3.886099935199831962e-02
C 1.886624124452971785e+01 8.164643856089030649e+00 9.076099935199832824e-02
C 1.783878942474445140e+01 7.275528337317736849e+00 8.436099935199832534e-02
C 1.768805005358001736e+01 4.917708474291523579e+00 2.909993519983238366e-04
C 1.827887769963881581e+01 3.600863777619732531e+00 -4.599900064800167832e-02
N 1.960167773362102750e+01 3.328172782908394467e+00 -4.252900064800167745e-02
C 1.841062314037382919e+01 1.415263175555044217e+00 -8.383900064800167695e-02
C 1.752724515760512247e+01 2.450143425902624905e+00 -8.027900064800166935e-02
C 2.211363715620234061e+01 1.772851988408107982e+00 2.150099935199832613e-02
N 2.234521520863662758e+01 3.114107237840799236e+00 1.707099935199832275e-02
C 2.369203402251696389e+01 3.229769699676716677e+00 2.954099935199832466e-02
C 2.430439622417841505e+01 1.997764096087051744e+00 6.145099935199832553e-02
C 2.330954937318666964e+01 1.070056147877153307e+00 5.776099935199831975e-02
C 2.444463924406075606e+01 4.466335400682946322e+00 7.009993519983238278e-04
C 2.090831551991868409e+01 1.191253253534584999e+00 -1.213900064800167537e-02
C 1.967540714325708251e+01 1.977050071584689483e+00 -5.111900064800167787e-02
H 2.402953066331750520e+01 8.905732908723123842e+00 -4.258900064800167501e-02
H 2.572056731783886718e+01 6.900705135757074338e+00 -5.002900064800167718e-02
C 2.144786879470773044e+01 9.485816828398810685e+00 2.016099935199832521e-02
H 1.876778407797693760e+01 9.241956307309381558e+00 1.162109993519983286e-01
H 1.678291101148814946e+01 7.515521885813031489e+00 1.039309993519983294e-01
H 1.660235524026817799e+01 4.990992766931817037e+00 6.590999351998323881e-03
H 1.815499152508766656e+01 3.639002209736181825e-01 -9.925900064800166622e-02
H 1.644754600793972088e+01 2.375823951255500166e+00 -9.197900064800167141e-02
H 2.536825382287245390e+01 1.797990744007857078e+00 7.947099935199833376e-02
H 2.345005131675405607e+01 -3.613100659742407572e-03 7.270099935199833552e-02
H 2.553084874918501512e+01 4.392664853802268787e+00 1.070999351998323931e-03
C 2.079654777177847080e+01 -2.599886650219582762e-01 -5.169000648001676607e-03
C 2.069295347244744931e+01 -1.461617771338090677e+00 2.809993519983238104e-04
C 2.150490716529177604e+01 1.069063643600864566e+01 2.336099935199832667e-02
Zn 2.107437716955077178e+01 4.619560914614825542e+00 -1.754900064800167525e-02
C 1.460531790299336663e+01 2.032262529714728316e+01 -3.695900064800167889e-02
C 1.592500681572161092e+01 2.000161434496322244e+01 -4.079900064800167508e-02
C 1.599499902046390254e+01 1.862619712907005720e+01 -2.121900064800167490e-02
C 1.390247652376452692e+01 1.912518416387862530e+01 -1.413900064800167715e-02
N 1.475739665334233308e+01 1.806411415174810386e+01 -1.881900064800167555e-02
C 1.256493721296823551e+01 1.905628067648803636e+01 1.659099935199832149e-02
C 1.184601569759341899e+01 1.778153221548438268e+01 4.928099935199832526e-02
N 1.240756211517899743e+01 1.654884669731812963e+01 3.074099935199832434e-02
C 1.135226241701058925e+01 1.569398553195520662e+01 3.886099935199831962e-02
C 1.046405253797261992e+01 1.769463400232159245e+01 9.076099935199832824e-02
C 1.015543554438301044e+01 1.637140341056227300e+01 8.436099935199832534e-02
C 1.141937657443865817e+01 1.437528469238896101e+01 2.909993519983238366e-04
C 1.267138807311000548e+01 1.365721473082899706e+01 -4.599900064800167832e-02
N 1.390183952588566285e+01 1.421412543360124303e+01 -4.252900064800167745e-02
C 1.406263617489122275e+01 1.196646472796335914e+01 -8.383900064800167695e-02
C 1.273968102533162927e+01 1.228446388716623261e+01 -8.027900064800166935e-02
C 1.684825201352530755e+01 1.443233718209617855e+01 2.150099935199832613e-02
N 1.624723253829250069e+01 1.565355363665732114e+01 1.707099935199832275e-02
C 1.726884715775460677e+01 1.653876677020272368e+01 2.954099935199832466e-02
C 1.848841331014327238e+01 1.590199077093147118e+01 6.145099935199832553e-02
C 1.822885835128283460e+01 1.456670296771039474e+01 5.776099935199831975e-02
C 1.715088248949669136e+01 1.798153968699968530e+01 7.009993519983238278e-04
C 1.621498148519462390e+01 1.325334363959996153e+01 -1.213900064800167537e-02
C 1.475565787501995807e+01 1.316438125829871097e+01 -5.111900064800167787e-02
H 1.420564020887456458e+01 2.132909301392903956e+01 -4.258900064800167501e-02
H 1.675224335587956404e+01 2.070095787801940901e+01 -5.002900064800167718e-02
C 1.177606711036209219e+01 2.028092799033564830e+01 2.016099935199832521e-02
H 9.751170646075037141e+00 1.850832641312835847e+01 1.162109993519983286e-01
H 9.160147295614136098e+00 1.594493251030928249e+01 1.039309993519983294e-01
H 1.049795559332599204e+01 1.379641753080057498e+01 6.590999351998323881e-03
H 1.447380149333480404e+01 1.096563773696582089e+01 -9.925900064800166622e-02
H 1.190986995559584471e+01 1.158970693207764491e+01 -9.197900064800167141e-02
H 1.946651601723485214e+01 1.636569054112779398e+01 7.947099935199833376e-02
H 1.897361376150149326e+01 1.378067126965360600e+01 7.270099935199833552e-02
H 1.807294689957860356e+01 1.856039689060026632e+01 1.070999351998323931e-03
C 1.697757807476234504e+01 1.201356883049965774e+01 -5.169000648001676607e-03
C 1.760006839350118923e+01 1.098053926118598156e+01 2.809993519983238104e-04
C 1.111403692447017733e+01 2.128917384109225353e+01 2.336099935199832667e-02
Zn 1.433421949835665643e+01 1.612451138798480699e+01 -1.754900064800167525e-02
C -1.293890457588080523e-01 2.502613970412909694e+01 -3.695900064800167889e-02
C 1.126947215444695338e+00 2.554213006894725879e+01 -4.079900064800167508e-02
C 1.992022053806151938e+00 2.447053455265676547e+01 -2.121900064800167490e-02
C 5.838572718834811326e-03 2.364426968013954422e+01 -1.413900064800167715e-02
N 1.321164791160627239e+00 2.328835545215812175e+01 -1.881900064800167555e-02
C -1.035753006640208085e+00 2.280233970662135690e+01 1.659099935199832149e-02
C -8.680943844397512876e-01 2.134847507382302112e+01 4.928099935199832526e-02
N 3.107605788099805366e-01 2.068128024364110829e+01 3.074099935199832434e-02
C -4.052002540913157702e-02 1.936939343369924060e+01 3.886099935199831962e-02
C -1.935048578025421406e+00 2.046587537815689117e+01 9.076099935199832824e-02
C -1.406949543373949396e+00 1.921395882450796933e+01 8.436099935199832534e-02
C 7.888893741960743000e-01 1.834199075594989026e+01 2.909993519983238366e-04
C 2.223858887293210795e+00 1.849697384851732807e+01 -4.599900064800167832e-02
N 2.891971125408697496e+00 1.967076528901275267e+01 -4.252900064800167745e-02
C 4.343200162023980404e+00 1.794688347946643603e+01 -8.383900064800167695e-02
C 3.085991747213564285e+00 1.742653667710299104e+01 -8.027900064800166935e-02
C 5.147407252705455960e+00 2.157916010932238748e+01 2.150099935199832613e-02
N 3.943359261443861730e+00 2.221387459099026529e+01 1.707099935199832275e-02
C 4.249547625257005024e+00 2.353051706651861252e+01 2.954099935199832466e-02
C 5.610484909689347433e+00 2.373219746006721209e+01 6.145099935199832553e-02
C 6.185363015296328371e+00 2.249936435790222689e+01 5.776099935199831975e-02
C 3.306071561000300640e+00 2.462840698293769037e+01 7.009993519983238278e-04
C 5.328075650076469216e+00 2.025310721992039120e+01 -1.213900064800167537e-02
C 4.199748824890256138e+00 1.932336624520473478e+01 -5.111900064800167787e-02
H -1.044321973406305837e+00 2.560546453702199443e+01 -4.258900064800167501e-02
H 1.385131819783873119e+00 2.659414831055822859e+01 -5.002900064800167718e-02
C -2.393791956342104399e+00 2.332941398335336203e+01 2.016099935199832521e-02
H -2.990058542527253671e+00 2.070514490400972818e+01 1.162109993519983286e-01
H -1.961481345229047157e+00 1.828392086419056994e+01 1.039309993519983294e-01
H 3.836937221203484683e-01 1.733207972088841231e+01 6.590999351998323881e-03
H 5.264111237547028033e+00 1.737887434575555901e+01 -9.925900064800166622e-02
H 2.823028381805555487e+00 1.637671578449639753e+01 -9.197900064800167141e-02
H 6.129230735557772647e+00 2.468225280089956897e+01 7.947099935199833376e-02
H 7.249900638768095540e+00 2.230120760274844471e+01 7.270099935199833552e-02
H 3.711793611205195020e+00 2.563868815987682481e+01 1.070999351998323931e-03
C 6.673750599842004583e+00 1.969835135895673162e+01 -5.169000648001676607e-03
C 7.784555392560234210e+00 1.922850351073966380e+01 2.809993519983238104e-04
C -3.522017669277683005e+00 2.375597043128377450e+01 2.336099935199832667e-02
Zn 2.118877180991762366e+00 2.147044656312933242e+01 -1.754900064800167525e-02
C -1.481467377680303699e+01 2.017051935133683216e+01 -3.695900064800167889e-02
C -1.410156791760504902e+01 2.132642025166413902e+01 -4.079900064800167508e-02
C -1.277183963106618059e+01 2.096795950000729292e+01 -2.121900064800167490e-02
C -1.389302951465966629e+01 1.913204781775576180e+01 -1.413900064800167715e-02
N -1.261970711650478272e+01 1.961723651193266349e+01 -1.881900064800167555e-02
C -1.424082078166199139e+01 1.783867999184662523e+01 1.659099935199832149e-02
C -1.325062191705985981e+01 1.676102606194118394e+01 4.928099935199832526e-02
N -1.190474093630086116e+01 1.691416766775488512e+01 3.074099935199832434e-02
C -1.141782519534757512e+01 1.564635138523919622e+01 3.886099935199831962e-02
C -1.359502690709990702e+01 1.541984796905586208e+01 9.076099935199832824e-02
C -1.243192772601820728e+01 1.471743502593259478e+01 8.436099935199832534e-02
C -1.014292675362577789e+01 1.530267977207433816e+01 2.909993519983238366e-04
C -9.073108807286072164e+00 1.627151764508998966e+01 -4.599900064800167832e-02
N -9.222531950491108077e+00 1.761384138874303673e+01 -4.252900064800167745e-02
C -7.035190692792375522e+00 1.707220273394730725e+01 -8.383900064800167695e-02
C -7.746441489338412367e+00 1.591226476258306022e+01 -8.027900064800166935e-02
C -8.519572124710160566e+00 2.048347732346334027e+01 2.150099935199832613e-02
N -9.866743223424650822e+00 2.028925047339259891e+01 1.707099935199832275e-02
C -1.039293466327737292e+01 2.153440961628385963e+01 2.954099935199832466e-02
C -9.410458032897526692e+00 2.249751134718120227e+01 6.145099935199832553e-02
C -8.220730759776845531e+00 2.183803328864336279e+01 5.776099935199831975e-02
C -1.180154633455878610e+01 2.186805990015874812e+01 7.009993519983238278e-04
C -7.593973988740209791e+00 1.951687222002712119e+01 -1.213900064800167537e-02
C -7.960321532135095524e+00 1.810148210350498132e+01 -5.111900064800167787e-02
H -1.589538865704433412e+01 2.010141890470263704e+01 -4.258900064800167501e-02
H -1.451105299257027070e+01 2.232927799031939742e+01 -5.002900064800167718e-02
C -1.564930385771972610e+01 1.746685677234716749e+01 2.016099935199832521e-02
H -1.458918699623611204e+01 1.499330178355106113e+01 1.162109993519983286e-01
H -1.233389078049360421e+01 1.363907289556440894e+01 1.039309993519983294e-01
H -9.877126109665315568e+00 1.424747655331966634e+01 6.590999351998323881e-03
H -5.956290590423441778e+00 1.715397164068026470e+01 -9.925900064800166622e-02
H -7.342114082628842908e+00 1.490837583133442479e+01 -9.197900064800167141e-02
H -9.549212362211862981e+00 2.357103340964500404e+01 7.947099935199833376e-02
H -7.243028112915141037e+00 2.230344062176093800e+01 7.270099935199833552e-02
H -1.206713867742388757e+01 2.292387197903993368e+01 1.070999351998323931e-03
C -6.179222771777984846e+00 1.985903319063001149e+01 -5.169000648001676607e-03
C -5.004393181032453342e+00 2.013183297198747823e+01 2.809993519983238104e-04
C -1.681278122233915795e+01 1.714879375246238880e+01 2.336099935199832667e-02
Zn -1.090580420152542374e+01 1.861540090479681808e+01 -1.754900064800167525e-02
C -2.384125665735027155e+01 7.610446177071386487e+00 -3.695900064800167889e-02
C -2.394376340079472953e+01 8.964742756609407337e+00 -4.079900064800167508e-02
C -2.265729267573414063e+01 9.456336593086291487e+00 -2.121900064800167490e-02
C -2.248523253414362344e+01 7.312033963377535528e+00 -1.413900064800167715e-02
N -2.174027983373428796e+01 8.452999989494365707e+00 -1.881900064800167555e-02
C -2.200637904578473325e+01 6.061250834619187344e+00 1.659099935199832149e-02
C -2.057186224943738750e+01 5.771434780720619884e+00 4.928099935199832526e-02
N -1.957303604100701833e+01 6.686417934200841628e+00 3.074099935199832434e-02
C -1.843390921826814832e+01 5.946934907541783666e+00 3.886099935199831962e-02
C -2.006216703563158177e+01 4.483962737131537146e+00 9.076099935199832824e-02
C -1.870833206300569529e+01 4.599351274669166934e+00 8.436099935199832534e-02
C -1.720048960696320961e+01 6.418265234221888882e+00 2.909993519983238366e-04
C -1.690445732110809018e+01 7.830894749781930564e+00 -4.599900064800167832e-02
N -1.781434128363516578e+01 8.829028750423137950e+00 -4.252900064800167745e-02
C -1.572637782029895703e+01 9.676520806889193693e+00 -8.383900064800167695e-02
C -1.561999736882546586e+01 8.320048546743679552e+00 -8.027900064800166935e-02
C -1.893236452009264781e+01 1.156380240782902646e+01 2.150099935199832613e-02
N -1.990808515521263899e+01 1.061482228121885818e+01 1.707099935199832275e-02
C -2.106566915329673506e+01 1.131288962029125855e+01 2.954099935199832466e-02
C -2.083692585662201324e+01 1.266954056195841360e+01 6.145099935199832553e-02
C -1.948678479697700183e+01 1.283531575057437912e+01 5.776099935199831975e-02
C -2.240137465012314522e+01 1.075485720353780117e+01 7.009993519983238278e-04
C -1.761538367354073387e+01 1.132585538617211185e+01 -1.213900064800167537e-02
C -1.707981962526247344e+01 9.965447045014276028e+00 -5.111900064800167787e-02
H -2.467495713808096625e+01 6.919314472886563649e+00 -4.258900064800167501e-02
H -2.486450877431343542e+01 9.535382422023509719e+00 -5.002900064800167718e-02
C -2.292731358572325462e+01 4.932553950930645748e+00 2.016099935199832521e-02
H -2.061574188561075260e+01 3.554526985360313418e+00 1.162109993519983286e-01
H -1.799517315113856597e+01 3.784562655870094439e+00 1.039309993519983294e-01
H -1.636521947872784466e+01 5.720821596300014633e+00 6.590999351998323881e-03
H -1.490159185972332878e+01 1.037683481091691284e+01 -9.925900064800166622e-02
H -1.470281851677827234e+01 7.745543027660173330e+00 -9.197900064800167141e-02
H -2.158018090340723205e+01 1.345648040586537242e+01 7.947099935199833376e-02
H -1.896936630693579673e+01 1.378651738932584614e+01 7.270099935199833552e-02
H -2.323683413823549060e+01 1.145291585596111084e+01 1.070999351998323931e-03
C -1.667194306863611075e+01 1.243423932719490210e+01 -5.169000648001676607e-03
C -1.588183365253894408e+01 1.334548649377188489e+01 2.809993519983238104e-04
C -2.368163379388306922e+01 3.991360726262227487e+00 2.336099935199832667e-02
Zn -1.976483905371129879e+01 8.649904815037469774e+00 -1.754900064800167525e-02
C -2.376128982929941458e+01 -7.856558767283634559e+00 -3.695900064800167889e-02
C -2.464025508346660587e+01 -6.821161771070692659e+00 -4.079900064800167508e-02
C -2.388843001132571686e+01 -5.667285483334295826e+00 -2.121900064800167490e-02
C -2.248884097052965458e+01 -7.300928338117308236e+00 -1.413900064800167715e-02
N -2.255680457941121375e+01 -5.939995222028280786e+00 -1.881900064800167555e-02
C -2.136624848373119079e+01 -8.031370127094119127e+00 1.659099935199832149e-02
C -2.003535041441070064e+01 -7.422648422881927388e+00 4.928099935199832526e-02
N -1.976509664107517494e+01 -6.095316187231068383e+00 3.074099935199832434e-02
C -1.840886646534029580e+01 -6.024008575953379463e+00 3.886099935199831962e-02
C -1.886624124452971785e+01 -8.164643856089028873e+00 9.076099935199832824e-02
C -1.783878942474445140e+01 -7.275528337317735073e+00 8.436099935199832534e-02
C -1.768805005358001736e+01 -4.917708474291521803e+00 2.909993519983238366e-04
C -1.827887769963881581e+01 -3.600863777619730310e+00 -4.599900064800167832e-02
N -1.960167773362102750e+01 -3.328172782908392247e+00 -4.252900064800167745e-02
C -1.841062314037382919e+01 -1.415263175555041997e+00 -8.383900064800167695e-02
C -1.752724515760512247e+01 -2.450143425902622685e+00 -8.027900064800166935e-02
C -2.211363715620234061e+01 -1.772851988408105317e+00 2.150099935199832613e-02
N -2.234521520863662758e+01 -3.114107237840796572e+00 1.707099935199832275e-02
C -2.369203402251696389e+01 -3.229769699676713568e+00 2.954099935199832466e-02
C -2.430439622417841505e+01 -1.997764096087048857e+00 6.145099935199832553e-02
C -2.330954937318666964e+01 -1.070056147877150421e+00 5.776099935199831975e-02
C -2.444463924406075606e+01 -4.466335400682943657e+00 7.009993519983238278e-04
C -2.090831551991868409e+01 -1.191253253534582335e+00 -1.213900064800167537e-02
C -1.967540714325708251e+01 -1.977050071584687041e+00 -5.111900064800167787e-02
H -2.402953066331750520e+01 -8.905732908723120289e+00 -4.258900064800167501e-02
H -2.572056731783886718e+01 -6.900705135757070785e+00 -5.002900064800167718e-02
C -2.144786879470773044e+01 -9.485816828398808909e+00 2.016099935199832521e-02
H -1.876778407797693760e+01 -9.241956307309379781e+00 1.162109993519983286e-01
H -1.678291101148814946e+01 -7.515521885813029712e+00 1.039309993519983294e-01
H -1.660235524026817799e+01 -4.990992766931815261e+00 6.590999351998323881e-03
H -1.815499152508766656e+01 -3.639002209736159621e-01 -9.925900064800166622e-02
H -1.644754600793972088e+01 -2.375823951255497946e+00 -9.197900064800167141e-02
H -2.536825382287245390e+01 -1.797990744007853969e+00 7.947099935199833376e-02
H -2.345005131675405607e+01 3.613100659745279407e-03 7.270099935199833552e-02
H -2.553084874918501512e+01 -4.392664853802265235e+00 1.070999351998323931e-03
C -2.079654777177847080e+01 2.599886650219608297e-01 -5.169000648001676607e-03
C -2.069295347244744931e+01 1.461617771338093119e+00 2.809993519983238104e-04
C -2.150490716529177604e+01 -1.069063643600864388e+01 2.336099935199832667e-02
Zn -2.107437716955077178e+01 -4.619560914614822877e+00 -1.754900064800167525e-02
C -1.460531790299337018e+01 -2.032262529714728316e+01 -3.695900064800167889e-02
C -1.592500681572161625e+01 -2.000161434496321888e+01 -4.079900064800167508e-02
C -1.599499902046390432e+01 -1.862619712907005720e+01 -2.121900064800167490e-02
C -1.390247652376453047e+01 -1.912518416387862530e+01 -1.413900064800167715e-02
N -1.475739665334233308e+01 -1.806411415174810031e+01 -1.881900064800167555e-02
C -1.256493721296824084e+01 -1.905628067648803281e+01 1.659099935199832149e-02
C -1.184601569759342254e+01 -1.778153221548438268e+01 4.928099935199832526e-02
N -1.240756211517899921e+01 -1.654884669731812963e+01 3.074099935199832434e-02
C -1.135226241701059102e+01 -1.569398553195520485e+01 3.886099935199831962e-02
C -1.046405253797262169e+01 -1.769463400232158889e+01 9.076099935199832824e-02
C -1.015543554438301399e+01 -1.637140341056227300e+01 8.436099935199832534e-02
C -1.141937657443865994e+01 -1.437528469238895923e+01 2.909993519983238366e-04
C -1.267138807311000726e+01 -1.365721473082899529e+01 -4.599900064800167832e-02
N -1.390183952588566463e+01 -1.421412543360124126e+01 -4.252900064800167745e-02
C -1.406263617489122630e+01 -1.196646472796335914e+01 -8.383900064800167695e-02
C -1.273968102533163105e+01 -1.228446388716623261e+01 -8.027900064800166935e-02
C -1.684825201352530755e+01 -1.443233718209617500e+01 2.150099935199832613e-02
N -1.624723253829250069e+01 -1.565355363665731758e+01 1.707099935199832275e-02
C -1.726884715775461032e+01 -1.653876677020272012e+01 2.954099935199832466e-02
C -1.848841331014327238e+01 -1.590199077093146940e+01 6.145099935199832553e-02
C -1.822885835128283816e+01 -1.456670296771039119e+01 5.776099935199831975e-02
C -1.715088248949669492e+01 -1.798153968699968175e+01 7.009993519983238278e-04
C -1.621498148519462745e+01 -1.325334363959995976e+01 -1.213900064800167537e-02
C -1.475565787501995985e+01 -1.316438125829871097e+01 -5.111900064800167787e-02
H -1.420564020887456635e+01 -2.132909301392903956e+01 -4.258900064800167501e-02
H -1.675224335587957114e+01 -2.070095787801940901e+01 -5.002900064800167718e-02
C -1.177606711036209575e+01 -2.028092799033564475e+01 2.016099935199832521e-02
H -9.751170646075042470e+00 -1.850832641312835847e+01 1.162109993519983286e-01
H -9.160147295614137875e+00 -1.594493251030928249e+01 1.039309993519983294e-01
H -1.049795559332599382e+01 -1.379641753080057498e+01 6.590999351998323881e-03
H -1.447380149333480581e+01 -1.096563773696582089e+01 -9.925900064800166622e-02
H -1.190986995559584649e+01 -1.158970693207764313e+01 -9.197900064800167141e-02
H -1.946651601723485570e+01 -1.636569054112779042e+01 7.947099935199833376e-02
H -1.897361376150149326e+01 -1.378067126965360245e+01 7.270099935199833552e-02
H -1.807294689957860356e+01 -1.856039689060026276e+01 1.070999351998323931e-03
C -1.697757807476234504e+01 -1.201356883049965596e+01 -5.169000648001676607e-03
C -1.760006839350119279e+01 -1.098053926118597978e+01 2.809993519983238104e-04
C -1.111403692447017733e+01 -2.128917384109225353e+01 2.336099935199832667e-02
Zn -1.433421949835665643e+01 -1.612451138798480343e+01 -1.754900064800167525e-02
C 1.293890457588053877e-01 -2.502613970412909694e+01 -3.695900064800167889e-02
C -1.126947215444698003e+00 -2.554213006894725879e+01 -4.079900064800167508e-02
C -1.992022053806154602e+00 -2.447053455265676902e+01 -2.121900064800167490e-02
C -5.838572718837475861e-03 -2.364426968013954422e+01 -1.413900064800167715e-02
N -1.321164791160629903e+00 -2.328835545215812530e+01 -1.881900064800167555e-02
C 1.035753006640205420e+00 -2.280233970662136045e+01 1.659099935199832149e-02
C 8.680943844397495113e-01 -2.134847507382302112e+01 4.928099935199832526e-02
N -3.107605788099823130e-01 -2.068128024364110829e+01 3.074099935199832434e-02
C 4.052002540912980066e-02 -1.936939343369924060e+01 3.886099935199831962e-02
C 1.935048578025418742e+00 -2.046587537815689117e+01 9.076099935199832824e-02
C 1.406949543373947620e+00 -1.921395882450796933e+01 8.436099935199832534e-02
C -7.888893741960760764e-01 -1.834199075594989026e+01 2.909993519983238366e-04
C -2.223858887293213460e+00 -1.849697384851733162e+01 -4.599900064800167832e-02
N -2.891971125408700161e+00 -1.967076528901275267e+01 -4.252900064800167745e-02
C -4.343200162023982180e+00 -1.794688347946643603e+01 -8.383900064800167695e-02
C -3.085991747213566061e+00 -1.742653667710299104e+01 -8.027900064800166935e-02
C -5.147407252705458625e+00 -2.157916010932238748e+01 2.150099935199832613e-02
N -3.943359261443864394e+00 -2.221387459099026529e+01 1.707099935199832275e-02
C -4.249547625257008576e+00 -2.353051706651861252e+01 2.954099935199832466e-02
C -5.610484909689350097e+00 -2.373219746006721209e+01 6.145099935199832553e-02
C -6.185363015296331035e+00 -2.249936435790222689e+01 5.776099935199831975e-02
C -3.306071561000303305e+00 -2.462840698293769037e+01 7.009993519983238278e-04
C -5.328075650076470993e+00 -2.025310721992039120e+01 -1.213900064800167537e-02
C -4.199748824890258803e+00 -1.932336624520473478e+01 -5.111900064800167787e-02
H 1.044321973406303172e+00 -2.560546453702199798e+01 -4.258900064800167501e-02
H -1.385131819783875784e+00 -2.659414831055823214e+01 -5.002900064800167718e-02
C 2.393791956342102623e+00 -2.332941398335336558e+01 2.016099935199832521e-02
H 2.990058542527251895e+00 -2.070514490400972818e+01 1.162109993519983286e-01
H 1.961481345229045381e+00 -1.828392086419056994e+01 1.039309993519983294e-01
H -3.836937221203502446e-01 -1.733207972088841231e+01 6.590999351998323881e-03
H -5.264111237547029809e+00 -1.737887434575555901e+01 -9.925900064800166622e-02
H -2.823028381805557263e+00 -1.637671578449639753e+01 -9.197900064800167141e-02
H -6.129230735557774423e+00 -2.468225280089956897e+01 7.947099935199833376e-02
H -7.249900638768098204e+00 -2.230120760274844471e+01 7.270099935199833552e-02
H -3.711793611205197685e+00 -2.563868815987682481e+01 1.070999351998323931e-03
C -6.673750599842007247e+00 -1.969835135895673162e+01 -5.169000648001676607e-03
C -7.784555392560235987e+00 -1.922850351073966380e+01 2.809993519983238104e-04
C 3.522017669277681229e+00 -2.375597043128377805e+01 2.336099935199832667e-02
Zn -2.118877180991765030e+00 -2.147044656312933242e+01 -1.754900064800167525e-02
C 1.481467377680302988e+01 -2.017051935133683926e+01 -3.695900064800167889e-02
C 1.410156791760504014e+01 -2.132642025166413902e+01 -4.079900064800167508e-02
C 1.277183963106617348e+01 -2.096795950000730002e+01 -2.121900064800167490e-02
C 1.389302951465965918e+01 -1.913204781775576535e+01 -1.413900064800167715e-02
N 1.261970711650477739e+01 -1.961723651193267060e+01 -1.881900064800167555e-02
C 1.424082078166198606e+01 -1.783867999184663233e+01 1.659099935199832149e-02
C 1.325062191705985271e+01 -1.676102606194118749e+01 4.928099935199832526e-02
N 1.190474093630085761e+01 -1.691416766775489222e+01 3.074099935199832434e-02
C 1.141782519534756979e+01 -1.564635138523920155e+01 3.886099935199831962e-02
C 1.359502690709989992e+01 -1.541984796905586563e+01 9.076099935199832824e-02
C 1.243192772601820195e+01 -1.471743502593260189e+01 8.436099935199832534e-02
C 1.014292675362577256e+01 -1.530267977207434349e+01 2.909993519983238366e-04
C 9.073108807286065058e+00 -1.627151764508999676e+01 -4.599900064800167832e-02
N 9.222531950491100972e+00 -1.761384138874304384e+01 -4.252900064800167745e-02
C 7.035190692792369305e+00 -1.707220273394731080e+01 -8.383900064800167695e-02
C 7.746441489338406150e+00 -1.591226476258306377e+01 -8.027900064800166935e-02
C 8.519572124710153460e+00 -2.048347732346334382e+01 2.150099935199832613e-02
N 9.866743223424643716e+00 -2.028925047339260246e+01 1.707099935199832275e-02
C 1.039293466327736581e+01 -2.153440961628386319e+01 2.954099935199832466e-02
C 9.410458032897517811e+00 -2.249751134718120582e+01 6.145099935199832553e-02
C 8.220730759776836649e+00 -2.183803328864336279e+01 5.776099935199831975e-02
C 1.180154633455877899e+01 -2.186805990015874812e+01 7.009993519983238278e-04
C 7.593973988740204462e+00 -1.951687222002712119e+01 -1.213900064800167537e-02
C 7.960321532135088418e+00 -1.810148210350498488e+01 -5.111900064800167787e-02
H 1.589538865704432880e+01 -2.010141890470264059e+01 -4.258900064800167501e-02
H 1.451105299257026360e+01 -2.232927799031940452e+01 -5.002900064800167718e-02
C 1.564930385771972077e+01 -1.746685677234717460e+01 2.016099935199832521e-02
H 1.458918699623610671e+01 -1.499330178355106646e+01 1.162109993519983286e-01
H 1.233389078049359888e+01 -1.363907289556441427e+01 1.039309993519983294e-01
H 9.877126109665312015e+00 -1.424747655331966989e+01 6.590999351998323881e-03
H 5.956290590423436448e+00 -1.715397164068026825e+01 -9.925900064800166622e-02
H 7.342114082628837579e+00 -1.490837583133442656e+01 -9.197900064800167141e-02
H 9.549212362211854099e+00 -2.357103340964500759e+01 7.947099935199833376e-02
H 7.243028112915133043e+00 -2.230344062176093800e+01 7.270099935199833552e-02
H 1.206713867742388047e+01 -2.292387197903993723e+01 1.070999351998323931e-03
C 6.179222771777977741e+00 -1.985903319063001149e+01 -5.169000648001676607e-03
C 5.004393181032448013e+00 -2.013183297198748178e+01 2.809993519983238104e-04
C 1.681278122233915084e+01 -1.714879375246239235e+01 2.336099935199832667e-02
Zn 1.090580420152541663e+01 -1.861540090479682164e+01 -1.754900064800167525e-02
C 2.384125665735026445e+01 -7.610446177071408691e+00 -3.695900064800167889e-02
C 2.394376340079472598e+01 -8.964742756609432206e+00 -4.079900064800167508e-02
C 2.265729267573413352e+01 -9.456336593086312803e+00 -2.121900064800167490e-02
C 2.248523253414361989e+01 -7.312033963377556844e+00 -1.413900064800167715e-02
N 2.174027983373428086e+01 -8.452999989494387023e+00 -1.881900064800167555e-02
C 2.200637904578472970e+01 -6.061250834619207772e+00 1.659099935199832149e-02
C 2.057186224943738040e+01 -5.771434780720640312e+00 4.928099935199832526e-02
N 1.957303604100700767e+01 -6.686417934200861168e+00 3.074099935199832434e-02
C 1.843390921826814122e+01 -5.946934907541801429e+00 3.886099935199831962e-02
C 2.006216703563157822e+01 -4.483962737131556686e+00 9.076099935199832824e-02
C 1.870833206300569174e+01 -4.599351274669185585e+00 8.436099935199832534e-02
C 1.720048960696320250e+01 -6.418265234221905757e+00 2.909993519983238366e-04
C 1.690445732110807953e+01 -7.830894749781946551e+00 -4.599900064800167832e-02
N 1.781434128363515867e+01 -8.829028750423155714e+00 -4.252900064800167745e-02
C 1.572637782029894993e+01 -9.676520806889207904e+00 -8.383900064800167695e-02
C 1.561999736882545697e+01 -8.320048546743693763e+00 -8.027900064800166935e-02
C 1.893236452009263715e+01 -1.156380240782904600e+01 2.150099935199832613e-02
N 1.990808515521262834e+01 -1.061482228121887772e+01 1.707099935199832275e-02
C 2.106566915329672085e+01 -1.131288962029127987e+01 2.954099935199832466e-02
C 2.083692585662200258e+01 -1.266954056195843314e+01 6.145099935199832553e-02
C 1.948678479697699117e+01 -1.283531575057439689e+01 5.776099935199831975e-02
C 2.240137465012313811e+01 -1.075485720353782249e+01 7.009993519983238278e-04
C 1.761538367354072321e+01 -1.132585538617212784e+01 -1.213900064800167537e-02
C 1.707981962526246278e+01 -9.965447045014290239e+00 -5.111900064800167787e-02
H 2.467495713808095914e+01 -6.919314472886586742e+00 -4.258900064800167501e-02
H 2.486450877431342832e+01 -9.535382422023534588e+00 -5.002900064800167718e-02
C 2.292731358572325107e+01 -4.932553950930667064e+00 2.016099935199832521e-02
H 2.061574188561074905e+01 -3.554526985360332958e+00 1.162109993519983286e-01
H 1.799517315113856597e+01 -3.784562655870111314e+00 1.039309993519983294e-01
H 1.636521947872784111e+01 -5.720821596300032397e+00 6.590999351998323881e-03